1
Lattice="20.0 0.0 0.0 0.0 20.0 0.0 0.0 0.0 20.0" Properties=species:S:1:pos:R:3:spin:R:3   pbc="T T T"  energy=-0.0 
Fe        0   0   0      0   0   1 
16
Lattice="5.6799998283 0.0 0.0 0.0 5.6799998283 0.0 0.0 0.0 5.6799998283" cutoff=4.00000000 nneightol=1.20000000 Properties=species:S:1:pos:R:3:spin:R:3:mag:R:3  energy=1.44325  pbc="T T T"
Fe	0	0	0	0.294	2.094	-0.942	0.294	2.094	-0.942
Fe	1.419999957	1.419999957	1.419999957	1.912	0.839	0.624	1.912	0.839	0.624
Fe	2.839999914	0	0	-0.53	1.733	1.346	-0.53	1.733	1.346
Fe	4.259999752	1.419999957	1.419999957	2.02	0.92	-0.562	2.02	0.92	-0.562
Fe	0	2.839999914	0	-0.655	1.826	-1.062	-0.655	1.826	-1.062
Fe	1.419999957	4.259999752	1.419999957	1.246	1.763	0.411	1.246	1.763	0.411
Fe	2.839999914	2.839999914	0	1.546	-0.322	1.396	1.546	-0.322	1.396
Fe	4.259999752	4.259999752	1.419999957	0.07	2.196	-0.558	0.07	2.196	-0.558
Fe	0	0	2.839999914	1.247	2.019	0.014	1.247	2.019	0.014
Fe	1.419999957	1.419999957	4.259999752	-0.937	1.867	0.606	-0.937	1.867	0.606
Fe	2.839999914	0	2.839999914	0.759	2.193	-0.148	0.759	2.193	-0.148
Fe	4.259999752	1.419999957	4.259999752	0.23	2.218	0.288	0.23	2.218	0.288
Fe	0	2.839999914	2.839999914	-0.661	2.195	-0.052	-0.661	2.195	-0.052
Fe	1.419999957	4.259999752	4.259999752	-0.711	1.152	1.79	-0.711	1.152	1.79
Fe	2.839999914	2.839999914	2.839999914	0.523	1.108	-1.793	0.523	1.108	-1.793
Fe	4.259999752	4.259999752	4.259999752	0.652	2.169	0.206	0.652	2.169	0.206
16
Lattice="5.6799998283 0.0 0.0 0.0 5.6799998283 0.0 0.0 0.0 5.6799998283" cutoff=4.00000000 nneightol=1.20000000 Properties=species:S:1:pos:R:3:spin:R:3:mag:R:3  energy=1.88101  pbc="T T T"
Fe	0	0	0	-0.403	1.452	1.519	-0.403	1.452	1.519
Fe	1.419999957	1.419999957	1.419999957	0.982	-0.039	1.993	0.982	-0.039	1.993
Fe	2.839999914	0	0	1.649	1.551	0.529	1.649	1.551	0.529
Fe	4.259999752	1.419999957	1.419999957	1.911	0.185	-0.988	1.911	0.185	-0.988
Fe	0	2.839999914	0	-0.395	-1.713	1.283	-0.395	-1.713	1.283
Fe	1.419999957	4.259999752	1.419999957	2.204	0.099	0.478	2.204	0.099	0.478
Fe	2.839999914	2.839999914	0	1.3	0.392	1.841	1.3	0.392	1.841
Fe	4.259999752	4.259999752	1.419999957	0.657	2.014	-0.483	0.657	2.014	-0.483
Fe	0	0	2.839999914	-0.819	2.014	-0.274	-0.819	2.014	-0.274
Fe	1.419999957	1.419999957	4.259999752	1.895	1.225	0.132	1.895	1.225	0.132
Fe	2.839999914	0	2.839999914	1.408	0.875	1.663	1.408	0.875	1.663
Fe	4.259999752	1.419999957	4.259999752	0.955	1.896	-0.59	0.955	1.896	-0.59
Fe	0	2.839999914	2.839999914	1.15	-0.512	1.727	1.15	-0.512	1.727
Fe	1.419999957	4.259999752	4.259999752	0.793	0.99	1.975	0.793	0.99	1.975
Fe	2.839999914	2.839999914	2.839999914	1.429	1.583	0.902	1.429	1.583	0.902
Fe	4.259999752	4.259999752	4.259999752	-0.108	1.14	1.926	-0.108	1.14	1.926
16
Lattice="5.6799998283 0.0 0.0 0.0 5.6799998283 0.0 0.0 0.0 5.6799998283" cutoff=4.00000000 nneightol=1.20000000 Properties=species:S:1:pos:R:3:spin:R:3:mag:R:3  energy=0.78877  pbc="T T T"
Fe	0	0	0	0.006	1.997	1.152	0.006	1.997	1.152
Fe	1.419999957	1.419999957	1.419999957	-0.507	2.044	0.98	-0.507	2.044	0.98
Fe	2.839999914	0	0	-0.502	2.051	0.985	-0.502	2.051	0.985
Fe	4.259999752	1.419999957	1.419999957	-0.488	1.977	0.944	-0.488	1.977	0.944
Fe	0	2.839999914	0	-0.49	2.003	0.961	-0.49	2.003	0.961
Fe	1.419999957	4.259999752	1.419999957	-0.518	2.084	1.001	-0.518	2.084	1.001
Fe	2.839999914	2.839999914	0	-0.495	2.026	0.973	-0.495	2.026	0.973
Fe	4.259999752	4.259999752	1.419999957	-0.502	2.027	0.972	-0.502	2.027	0.972
Fe	0	0	2.839999914	-0.478	1.945	0.932	-0.478	1.945	0.932
Fe	1.419999957	1.419999957	4.259999752	-0.484	1.951	0.932	-0.484	1.951	0.932
Fe	2.839999914	0	2.839999914	1.125	1.259	1.461	1.125	1.259	1.461
Fe	4.259999752	1.419999957	4.259999752	-1.469	-0.636	1.442	-1.469	-0.636	1.442
Fe	0	2.839999914	2.839999914	1.483	0.493	1.495	1.483	0.493	1.495
Fe	1.419999957	4.259999752	4.259999752	0.595	2.199	0.247	0.595	2.199	0.247
Fe	2.839999914	2.839999914	2.839999914	0.281	1.722	1.37	0.281	1.722	1.37
Fe	4.259999752	4.259999752	4.259999752	-1.123	1.66	0.866	-1.123	1.66	0.866
16
Lattice="5.6799998283 0.0 0.0 0.0 5.6799998283 0.0 0.0 0.0 5.6799998283" cutoff=4.00000000 nneightol=1.20000000 Properties=species:S:1:pos:R:3:spin:R:3:mag:R:3  energy=1.40506  pbc="T T T"
Fe	0	0	0	1.51	1.072	-1.207	1.51	1.072	-1.207
Fe	1.419999957	1.419999957	1.419999957	0.714	1.704	1.202	0.714	1.704	1.202
Fe	2.839999914	0	0	1.882	1.306	-0.068	1.882	1.306	-0.068
Fe	4.259999752	1.419999957	1.419999957	1.305	0.626	1.729	1.305	0.626	1.729
Fe	0	2.839999914	0	1.234	0.42	-1.788	1.234	0.42	-1.788
Fe	1.419999957	4.259999752	1.419999957	1.844	1.173	-0.075	1.844	1.173	-0.075
Fe	2.839999914	2.839999914	0	-0.521	1.773	-1.156	-0.521	1.773	-1.156
Fe	4.259999752	4.259999752	1.419999957	0.79	2.058	0.293	0.79	2.058	0.293
Fe	0	0	2.839999914	-0.731	2.021	0.654	-0.731	2.021	0.654
Fe	1.419999957	1.419999957	4.259999752	1.141	1.756	-0.795	1.141	1.756	-0.795
Fe	2.839999914	0	2.839999914	0.433	2.281	0.23	0.433	2.281	0.23
Fe	4.259999752	1.419999957	4.259999752	1.774	1.378	-0.039	1.774	1.378	-0.039
Fe	0	2.839999914	2.839999914	-0.239	1.994	-0.912	-0.239	1.994	-0.912
Fe	1.419999957	4.259999752	4.259999752	-1.405	1.66	-0.65	-1.405	1.66	-0.65
Fe	2.839999914	2.839999914	2.839999914	1.946	1.092	0.067	1.946	1.092	0.067
Fe	4.259999752	4.259999752	4.259999752	1.552	1.557	-0.584	1.552	1.557	-0.584
16
Lattice="5.6799998283 0.0 0.0 0.0 5.6799998283 0.0 0.0 0.0 5.6799998283" cutoff=4.00000000 nneightol=1.20000000 Properties=species:S:1:pos:R:3:spin:R:3:mag:R:3  energy=1.70752  pbc="T T T"
Fe	0	0	0	0.982	1.98	0.141	0.982	1.98	0.141
Fe	1.419999957	1.419999957	1.419999957	-0.959	1.939	0.218	-0.959	1.939	0.218
Fe	2.839999914	0	0	0.883	1.836	0.839	0.883	1.836	0.839
Fe	4.259999752	1.419999957	1.419999957	1.645	1.2	0.892	1.645	1.2	0.892
Fe	0	2.839999914	0	-0.702	1.664	-1.132	-0.702	1.664	-1.132
Fe	1.419999957	4.259999752	1.419999957	1.923	0.955	-0.139	1.923	0.955	-0.139
Fe	2.839999914	2.839999914	0	1.922	-0.786	0.317	1.922	-0.786	0.317
Fe	4.259999752	4.259999752	1.419999957	-1.568	1.26	0.748	-1.568	1.26	0.748
Fe	0	0	2.839999914	0.561	1.348	-1.779	0.561	1.348	-1.779
Fe	1.419999957	1.419999957	4.259999752	1.595	1.619	0.049	1.595	1.619	0.049
Fe	2.839999914	0	2.839999914	0.79	2.001	0.721	0.79	2.001	0.721
Fe	4.259999752	1.419999957	4.259999752	-0.666	1.999	-0.822	-0.666	1.999	-0.822
Fe	0	2.839999914	2.839999914	1.168	1.877	0.126	1.168	1.877	0.126
Fe	1.419999957	4.259999752	4.259999752	-1.3	1.196	1.221	-1.3	1.196	1.221
Fe	2.839999914	2.839999914	2.839999914	0.14	2.116	-0.502	0.14	2.116	-0.502
Fe	4.259999752	4.259999752	4.259999752	0.835	1.963	-0.588	0.835	1.963	-0.588
16
Lattice="5.6799998283 0.0 0.0 0.0 5.6799998283 0.0 0.0 0.0 5.6799998283" cutoff=4.00000000 nneightol=1.20000000 Properties=species:S:1:pos:R:3:spin:R:3:mag:R:3  energy=1.75631  pbc="T T T"
Fe	0	0	0	1.206	1.788	-0.289	1.206	1.788	-0.289
Fe	1.419999957	1.419999957	1.419999957	-1.613	1.297	-0.828	-1.613	1.297	-0.828
Fe	2.839999914	0	0	-1.525	0.282	-1.501	-1.525	0.282	-1.501
Fe	4.259999752	1.419999957	1.419999957	-0.902	1.926	-0.699	-0.902	1.926	-0.699
Fe	0	2.839999914	0	-1.84	0.927	0.706	-1.84	0.927	0.706
Fe	1.419999957	4.259999752	1.419999957	0.48	1.105	1.721	0.48	1.105	1.721
Fe	2.839999914	2.839999914	0	-0.423	1.198	1.805	-0.423	1.198	1.805
Fe	4.259999752	4.259999752	1.419999957	-0.354	0.789	-1.921	-0.354	0.789	-1.921
Fe	0	0	2.839999914	1.024	1.625	1.247	1.024	1.625	1.247
Fe	1.419999957	1.419999957	4.259999752	1.355	1.727	-0.415	1.355	1.727	-0.415
Fe	2.839999914	0	2.839999914	-0.582	2.192	-0.098	-0.582	2.192	-0.098
Fe	4.259999752	1.419999957	4.259999752	-0.527	1.737	1.332	-0.527	1.737	1.332
Fe	0	2.839999914	2.839999914	0.504	1.845	-1.218	0.504	1.845	-1.218
Fe	1.419999957	4.259999752	4.259999752	-0.346	2.044	0.928	-0.346	2.044	0.928
Fe	2.839999914	2.839999914	2.839999914	0.619	1.822	1.241	0.619	1.822	1.241
Fe	4.259999752	4.259999752	4.259999752	0.82	1.629	1.345	0.82	1.629	1.345
16
Lattice="5.6799998283 0.0 0.0 0.0 5.6799998283 0.0 0.0 0.0 5.6799998283" cutoff=4.00000000 nneightol=1.20000000 Properties=species:S:1:pos:R:3:spin:R:3:mag:R:3  energy=1.47267  pbc="T T T"
Fe	0	0	0	-1.307	1.839	-0.391	-1.307	1.839	-0.391
Fe	1.419999957	1.419999957	1.419999957	-0.07	1.715	1.393	-0.07	1.715	1.393
Fe	2.839999914	0	0	-0.849	1.965	-0.684	-0.849	1.965	-0.684
Fe	4.259999752	1.419999957	1.419999957	-0.529	2.184	0.226	-0.529	2.184	0.226
Fe	0	2.839999914	0	-0.431	1.708	1.514	-0.431	1.708	1.514
Fe	1.419999957	4.259999752	1.419999957	1.951	0.587	0.708	1.951	0.587	0.708
Fe	2.839999914	2.839999914	0	0.954	2.078	0.309	0.954	2.078	0.309
Fe	4.259999752	4.259999752	1.419999957	-1.699	1.162	-0.659	-1.699	1.162	-0.659
Fe	0	0	2.839999914	1.837	1.154	-0.272	1.837	1.154	-0.272
Fe	1.419999957	1.419999957	4.259999752	1.565	1.644	-0.34	1.565	1.644	-0.34
Fe	2.839999914	0	2.839999914	0.228	-0.397	2.028	0.228	-0.397	2.028
Fe	4.259999752	1.419999957	4.259999752	-0.049	2.274	0.333	-0.049	2.274	0.333
Fe	0	2.839999914	2.839999914	1.433	1.731	0.646	1.433	1.731	0.646
Fe	1.419999957	4.259999752	4.259999752	1.622	1.578	0.193	1.622	1.578	0.193
Fe	2.839999914	2.839999914	2.839999914	1.608	1.571	-0.421	1.608	1.571	-0.421
Fe	4.259999752	4.259999752	4.259999752	0.195	2.221	-0.021	0.195	2.221	-0.021
16
Lattice="5.6799998283 0.0 0.0 0.0 5.6799998283 0.0 0.0 0.0 5.6799998283" cutoff=4.00000000 nneightol=1.20000000 Properties=species:S:1:pos:R:3:spin:R:3:mag:R:3  energy=2.15704  pbc="T T T"
Fe	0	0	0	0.649	2.195	-0.298	0.649	2.195	-0.298
Fe	1.419999957	1.419999957	1.419999957	2.043	0.882	0.078	2.043	0.882	0.078
Fe	2.839999914	0	0	0.937	1.945	0.82	0.937	1.945	0.82
Fe	4.259999752	1.419999957	1.419999957	0.215	1.793	-1.454	0.215	1.793	-1.454
Fe	0	2.839999914	0	-1.588	1.549	-0.272	-1.588	1.549	-0.272
Fe	1.419999957	4.259999752	1.419999957	1.915	-0.905	0.539	1.915	-0.905	0.539
Fe	2.839999914	2.839999914	0	-0.823	1.98	-0.68	-0.823	1.98	-0.68
Fe	4.259999752	4.259999752	1.419999957	1.456	1.664	0.067	1.456	1.664	0.067
Fe	0	0	2.839999914	1.129	1.005	1.741	1.129	1.005	1.741
Fe	1.419999957	1.419999957	4.259999752	1.642	1.465	-0.442	1.642	1.465	-0.442
Fe	2.839999914	0	2.839999914	1.098	1.397	1.436	1.098	1.397	1.436
Fe	4.259999752	1.419999957	4.259999752	0.735	2.265	-0.185	0.735	2.265	-0.185
Fe	0	2.839999914	2.839999914	-0.387	1.737	1.147	-0.387	1.737	1.147
Fe	1.419999957	4.259999752	4.259999752	1.583	0.319	-1.367	1.583	0.319	-1.367
Fe	2.839999914	2.839999914	2.839999914	-1.565	1.088	-0.982	-1.565	1.088	-0.982
Fe	4.259999752	4.259999752	4.259999752	-1.052	1.893	-0.844	-1.052	1.893	-0.844
16
Lattice="5.6799998283 0.0 0.0 0.0 5.6799998283 0.0 0.0 0.0 5.6799998283" cutoff=4.00000000 nneightol=1.20000000 Properties=species:S:1:pos:R:3:spin:R:3:mag:R:3  energy=1.21777  pbc="T T T"
Fe	0	0	0	0.559	2.013	-0.698	0.559	2.013	-0.698
Fe	1.419999957	1.419999957	1.419999957	0.972	2.083	-0.269	0.972	2.083	-0.269
Fe	2.839999914	0	0	1.84	0.916	0.824	1.84	0.916	0.824
Fe	4.259999752	1.419999957	1.419999957	-0.218	1.206	-1.827	-0.218	1.206	-1.827
Fe	0	2.839999914	0	1.894	1.169	0.226	1.894	1.169	0.226
Fe	1.419999957	4.259999752	1.419999957	1	1.983	0.52	1	1.983	0.52
Fe	2.839999914	2.839999914	0	0.168	2.133	0.68	0.168	2.133	0.68
Fe	4.259999752	4.259999752	1.419999957	2.144	-0.284	-0.005	2.144	-0.284	-0.005
Fe	0	0	2.839999914	0.86	1.371	-1.573	0.86	1.371	-1.573
Fe	1.419999957	1.419999957	4.259999752	1.608	0.526	-1.439	1.608	0.526	-1.439
Fe	2.839999914	0	2.839999914	1.639	1.51	-0.415	1.639	1.51	-0.415
Fe	4.259999752	1.419999957	4.259999752	1.812	0.622	1.02	1.812	0.622	1.02
Fe	0	2.839999914	2.839999914	1.827	0.992	0.865	1.827	0.992	0.865
Fe	1.419999957	4.259999752	4.259999752	1.415	1.06	1.484	1.415	1.06	1.484
Fe	2.839999914	2.839999914	2.839999914	1.635	1.581	-0.183	1.635	1.581	-0.183
Fe	4.259999752	4.259999752	4.259999752	2.274	-0.048	0.21	2.274	-0.048	0.21
16
Lattice="5.6799998283 0.0 0.0 0.0 5.6799998283 0.0 0.0 0.0 5.6799998283" cutoff=4.00000000 nneightol=1.20000000 Properties=species:S:1:pos:R:3:spin:R:3:mag:R:3  energy=2.45082  pbc="T T T"
Fe	0	0	0	1.529	1.559	-0.317	1.529	1.559	-0.317
Fe	1.419999957	1.419999957	1.419999957	-1.882	-0.624	-0.277	-1.882	-0.624	-0.277
Fe	2.839999914	0	0	-0.259	1.812	1.148	-0.259	1.812	1.148
Fe	4.259999752	1.419999957	1.419999957	0.377	1.706	1.419	0.377	1.706	1.419
Fe	0	2.839999914	0	1.793	0.944	-0.906	1.793	0.944	-0.906
Fe	1.419999957	4.259999752	1.419999957	0.959	-1.338	1.374	0.959	-1.338	1.374
Fe	2.839999914	2.839999914	0	-0.282	0.241	2.203	-0.282	0.241	2.203
Fe	4.259999752	4.259999752	1.419999957	0.491	1.453	1.705	0.491	1.453	1.705
Fe	0	0	2.839999914	1.672	1.412	-0.012	1.672	1.412	-0.012
Fe	1.419999957	1.419999957	4.259999752	1.905	0.345	-0.939	1.905	0.345	-0.939
Fe	2.839999914	0	2.839999914	-1.567	-0.472	-1.26	-1.567	-0.472	-1.26
Fe	4.259999752	1.419999957	4.259999752	-0.419	2.216	-0.661	-0.419	2.216	-0.661
Fe	0	2.839999914	2.839999914	0.862	2.036	-0.069	0.862	2.036	-0.069
Fe	1.419999957	4.259999752	4.259999752	-1.323	1.304	1.014	-1.323	1.304	1.014
Fe	2.839999914	2.839999914	2.839999914	-0.385	1.925	0.997	-0.385	1.925	0.997
Fe	4.259999752	4.259999752	4.259999752	-0.071	1.868	1.415	-0.071	1.868	1.415
16
Lattice="5.6799998283 0.0 0.0 0.0 5.6799998283 0.0 0.0 0.0 5.6799998283" cutoff=4.00000000 nneightol=1.20000000 Properties=species:S:1:pos:R:3:spin:R:3:mag:R:3  energy=2.01796  pbc="T T T"
Fe	0	0	0	-1.379	1.621	0.851	-1.379	1.621	0.851
Fe	1.419999957	1.419999957	1.419999957	-0.1	1.633	1.491	-0.1	1.633	1.491
Fe	2.839999914	0	0	0.974	1.87	-0.485	0.974	1.87	-0.485
Fe	4.259999752	1.419999957	1.419999957	-2.043	0.777	-0.548	-2.043	0.777	-0.548
Fe	0	2.839999914	0	-0.205	2.091	-0.802	-0.205	2.091	-0.802
Fe	1.419999957	4.259999752	1.419999957	-0.807	0.731	1.856	-0.807	0.731	1.856
Fe	2.839999914	2.839999914	0	-1.685	-0.758	1.061	-1.685	-0.758	1.061
Fe	4.259999752	4.259999752	1.419999957	1.269	1.302	-1.048	1.269	1.302	-1.048
Fe	0	0	2.839999914	-1.523	1.16	1.233	-1.523	1.16	1.233
Fe	1.419999957	1.419999957	4.259999752	-0.479	1.925	1.079	-0.479	1.925	1.079
Fe	2.839999914	0	2.839999914	1.215	1.56	-1.048	1.215	1.56	-1.048
Fe	4.259999752	1.419999957	4.259999752	-1	2.007	-0.351	-1	2.007	-0.351
Fe	0	2.839999914	2.839999914	1.03	2.026	-0.211	1.03	2.026	-0.211
Fe	1.419999957	4.259999752	4.259999752	0.396	-0.094	2.201	0.396	-0.094	2.201
Fe	2.839999914	2.839999914	2.839999914	-0.094	2.093	0.748	-0.094	2.093	0.748
Fe	4.259999752	4.259999752	4.259999752	-0.665	0.897	1.776	-0.665	0.897	1.776
16
Lattice="5.6799998283 0.0 0.0 0.0 5.6799998283 0.0 0.0 0.0 5.6799998283" cutoff=4.00000000 nneightol=1.20000000 Properties=species:S:1:pos:R:3:spin:R:3:mag:R:3  energy=2.04075  pbc="T T T"
Fe	0	0	0	-1.202	0.606	1.895	-1.202	0.606	1.895
Fe	1.419999957	1.419999957	1.419999957	-0.54	0.559	1.982	-0.54	0.559	1.982
Fe	2.839999914	0	0	-2.028	-1.043	0.448	-2.028	-1.043	0.448
Fe	4.259999752	1.419999957	1.419999957	-0.707	1.739	1.146	-0.707	1.739	1.146
Fe	0	2.839999914	0	-0.256	1.957	1.166	-0.256	1.957	1.166
Fe	1.419999957	4.259999752	1.419999957	-1.864	0.002	-0.906	-1.864	0.002	-0.906
Fe	2.839999914	2.839999914	0	-1.866	1.399	0.058	-1.866	1.399	0.058
Fe	4.259999752	4.259999752	1.419999957	-0.328	2.169	0.206	-0.328	2.169	0.206
Fe	0	0	2.839999914	0.14	1.248	1.775	0.14	1.248	1.775
Fe	1.419999957	1.419999957	4.259999752	-2.147	-0.332	0.479	-2.147	-0.332	0.479
Fe	2.839999914	0	2.839999914	-1.477	0.4	-1.599	-1.477	0.4	-1.599
Fe	4.259999752	1.419999957	4.259999752	-1.626	1.378	0.548	-1.626	1.378	0.548
Fe	0	2.839999914	2.839999914	0.072	-1.182	-1.666	0.072	-1.182	-1.666
Fe	1.419999957	4.259999752	4.259999752	-0.75	0.604	1.904	-0.75	0.604	1.904
Fe	2.839999914	2.839999914	2.839999914	-0.204	2.07	0.689	-0.204	2.07	0.689
Fe	4.259999752	4.259999752	4.259999752	-0.549	1.843	1.091	-0.549	1.843	1.091
16
Lattice="5.6799998283 0.0 0.0 0.0 5.6799998283 0.0 0.0 0.0 5.6799998283" cutoff=4.00000000 nneightol=1.20000000 Properties=species:S:1:pos:R:3:spin:R:3:mag:R:3  energy=0.99496  pbc="T T T"
Fe	0	0	0	-1.098	1.295	1.454	-1.098	1.295	1.454
Fe	1.419999957	1.419999957	1.419999957	1.427	0.703	1.574	1.427	0.703	1.574
Fe	2.839999914	0	0	0.817	1.159	1.7	0.817	1.159	1.7
Fe	4.259999752	1.419999957	1.419999957	0.405	-0.098	2.264	0.405	-0.098	2.264
Fe	0	2.839999914	0	0.811	0.747	1.974	0.811	0.747	1.974
Fe	1.419999957	4.259999752	1.419999957	1.273	0.908	1.618	1.273	0.908	1.618
Fe	2.839999914	2.839999914	0	1.167	-1.464	1.141	1.167	-1.464	1.141
Fe	4.259999752	4.259999752	1.419999957	1.507	0.464	1.629	1.507	0.464	1.629
Fe	0	0	2.839999914	1.438	0.711	1.649	1.438	0.711	1.649
Fe	1.419999957	1.419999957	4.259999752	0.072	-0.674	2.029	0.072	-0.674	2.029
Fe	2.839999914	0	2.839999914	-0.369	0.008	2.244	-0.369	0.008	2.244
Fe	4.259999752	1.419999957	4.259999752	-0.208	0.332	2.244	-0.208	0.332	2.244
Fe	0	2.839999914	2.839999914	0.891	1.305	1.684	0.891	1.305	1.684
Fe	1.419999957	4.259999752	4.259999752	0.231	2.136	0.146	0.231	2.136	0.146
Fe	2.839999914	2.839999914	2.839999914	0.123	1.631	1.519	0.123	1.631	1.519
Fe	4.259999752	4.259999752	4.259999752	0.282	0.434	2.154	0.282	0.434	2.154
16
Lattice="5.6799998283 0.0 0.0 0.0 5.6799998283 0.0 0.0 0.0 5.6799998283" cutoff=4.00000000 nneightol=1.20000000 Properties=species:S:1:pos:R:3:spin:R:3:mag:R:3  energy=3.13486  pbc="T T T"
Fe	0	0	0	0.92	1.958	0.178	0.92	1.958	0.178
Fe	1.419999957	1.419999957	1.419999957	-1.967	0.28	-0.749	-1.967	0.28	-0.749
Fe	2.839999914	0	0	-0.903	-0.717	1.638	-0.903	-0.717	1.638
Fe	4.259999752	1.419999957	1.419999957	-1.377	0.429	-1.546	-1.377	0.429	-1.546
Fe	0	2.839999914	0	-1.662	-0.493	1.197	-1.662	-0.493	1.197
Fe	1.419999957	4.259999752	1.419999957	-1.169	1.948	0.242	-1.169	1.948	0.242
Fe	2.839999914	2.839999914	0	1.321	-0.622	1.388	1.321	-0.622	1.388
Fe	4.259999752	4.259999752	1.419999957	-2.313	0.217	-0.012	-2.313	0.217	-0.012
Fe	0	0	2.839999914	-1.261	1.439	1.117	-1.261	1.439	1.117
Fe	1.419999957	1.419999957	4.259999752	1.839	-0.239	-0.969	1.839	-0.239	-0.969
Fe	2.839999914	0	2.839999914	-1.061	-1.597	-0.966	-1.061	-1.597	-0.966
Fe	4.259999752	1.419999957	4.259999752	2.053	0.158	0.113	2.053	0.158	0.113
Fe	0	2.839999914	2.839999914	-1.833	-1.198	-0.343	-1.833	-1.198	-0.343
Fe	1.419999957	4.259999752	4.259999752	-1.817	0.323	-1.083	-1.817	0.323	-1.083
Fe	2.839999914	2.839999914	2.839999914	-1.782	-0.013	1.247	-1.782	-0.013	1.247
Fe	4.259999752	4.259999752	4.259999752	-1.636	0.565	1.397	-1.636	0.565	1.397
16
Lattice="5.6799998283 0.0 0.0 0.0 5.6799998283 0.0 0.0 0.0 5.6799998283" cutoff=4.00000000 nneightol=1.20000000 Properties=species:S:1:pos:R:3:spin:R:3:mag:R:3  energy=1.79156  pbc="T T T"
Fe	0	0	0	-1.067	-1.569	-1.149	-1.067	-1.569	-1.149
Fe	1.419999957	1.419999957	1.419999957	-1.151	1.771	0.163	-1.151	1.771	0.163
Fe	2.839999914	0	0	-1.28	1.271	-1.132	-1.28	1.271	-1.132
Fe	4.259999752	1.419999957	1.419999957	-1.02	-1.627	-1.008	-1.02	-1.627	-1.008
Fe	0	2.839999914	0	-1.077	-1.91	-0.221	-1.077	-1.91	-0.221
Fe	1.419999957	4.259999752	1.419999957	-1.513	-0.42	-1.555	-1.513	-0.42	-1.555
Fe	2.839999914	2.839999914	0	-0.992	-1.726	1.061	-0.992	-1.726	1.061
Fe	4.259999752	4.259999752	1.419999957	-1.259	0.405	-1.812	-1.259	0.405	-1.812
Fe	0	0	2.839999914	-1.14	1.272	-1.541	-1.14	1.272	-1.541
Fe	1.419999957	1.419999957	4.259999752	-1.75	0.756	-1.092	-1.75	0.756	-1.092
Fe	2.839999914	0	2.839999914	-0.817	-1.989	0.118	-0.817	-1.989	0.118
Fe	4.259999752	1.419999957	4.259999752	-2.236	-0.047	0.182	-2.236	-0.047	0.182
Fe	0	2.839999914	2.839999914	-1.441	1.583	-0.63	-1.441	1.583	-0.63
Fe	1.419999957	4.259999752	4.259999752	-1.699	-1.276	0.602	-1.699	-1.276	0.602
Fe	2.839999914	2.839999914	2.839999914	-1.766	-0.226	-1.36	-1.766	-0.226	-1.36
Fe	4.259999752	4.259999752	4.259999752	-2.085	0.674	-0.535	-2.085	0.674	-0.535
16
Lattice="5.6799998283 0.0 0.0 0.0 5.6799998283 0.0 0.0 0.0 5.6799998283" cutoff=4.00000000 nneightol=1.20000000 Properties=species:S:1:pos:R:3:spin:R:3:mag:R:3  energy=1.92717  pbc="T T T"
Fe	0	0	0	-0.902	1.483	-1.592	-0.902	1.483	-1.592
Fe	1.419999957	1.419999957	1.419999957	0.042	0.01	-2.248	0.042	0.01	-2.248
Fe	2.839999914	0	0	-0.681	0.835	-2.049	-0.681	0.835	-2.049
Fe	4.259999752	1.419999957	1.419999957	-1.603	-1.387	-0.243	-1.603	-1.387	-0.243
Fe	0	2.839999914	0	-0.95	1.79	-1.076	-0.95	1.79	-1.076
Fe	1.419999957	4.259999752	1.419999957	-0.272	2.128	-0.547	-0.272	2.128	-0.547
Fe	2.839999914	2.839999914	0	-1.602	0.781	-1.403	-1.602	0.781	-1.403
Fe	4.259999752	4.259999752	1.419999957	1.498	1.239	-0.925	1.498	1.239	-0.925
Fe	0	0	2.839999914	1.489	1.396	-0.863	1.489	1.396	-0.863
Fe	1.419999957	1.419999957	4.259999752	-1.758	-0.319	-1.454	-1.758	-0.319	-1.454
Fe	2.839999914	0	2.839999914	0.14	1.204	-1.788	0.14	1.204	-1.788
Fe	4.259999752	1.419999957	4.259999752	-1.645	1.474	-0.222	-1.645	1.474	-0.222
Fe	0	2.839999914	2.839999914	-1.795	-0.147	-1.113	-1.795	-0.147	-1.113
Fe	1.419999957	4.259999752	4.259999752	0.524	0.612	-2.13	0.524	0.612	-2.13
Fe	2.839999914	2.839999914	2.839999914	-0.803	-1.734	0.978	-0.803	-1.734	0.978
Fe	4.259999752	4.259999752	4.259999752	-1.634	1.547	0.099	-1.634	1.547	0.099
16
Lattice="5.6799998283 0.0 0.0 0.0 5.6799998283 0.0 0.0 0.0 5.6799998283" cutoff=4.00000000 nneightol=1.20000000 Properties=species:S:1:pos:R:3:spin:R:3:mag:R:3  energy=1.54876  pbc="T T T"
Fe	0	0	0	-1.868	-1.019	-0.681	-1.868	-1.019	-0.681
Fe	1.419999957	1.419999957	1.419999957	-0.548	-2.058	0.693	-0.548	-2.058	0.693
Fe	2.839999914	0	0	-1.497	0.152	-1.716	-1.497	0.152	-1.716
Fe	4.259999752	1.419999957	1.419999957	-0.227	-2.107	-0.615	-0.227	-2.107	-0.615
Fe	0	2.839999914	0	-1.889	0.808	0.824	-1.889	0.808	0.824
Fe	1.419999957	4.259999752	1.419999957	-0.086	-2.239	-0.354	-0.086	-2.239	-0.354
Fe	2.839999914	2.839999914	0	-2.074	-0.805	0.016	-2.074	-0.805	0.016
Fe	4.259999752	4.259999752	1.419999957	-1.541	-1.558	0.418	-1.541	-1.558	0.418
Fe	0	0	2.839999914	-1.892	0.647	-0.906	-1.892	0.647	-0.906
Fe	1.419999957	1.419999957	4.259999752	-2.202	-0.471	0.176	-2.202	-0.471	0.176
Fe	2.839999914	0	2.839999914	-1.338	-1.516	-1.081	-1.338	-1.516	-1.081
Fe	4.259999752	1.419999957	4.259999752	-1.864	0.963	-0.844	-1.864	0.963	-0.844
Fe	0	2.839999914	2.839999914	-0.641	-2.041	0.712	-0.641	-2.041	0.712
Fe	1.419999957	4.259999752	4.259999752	-1.823	-1.179	0.665	-1.823	-1.179	0.665
Fe	2.839999914	2.839999914	2.839999914	0.094	-2.249	-0.404	0.094	-2.249	-0.404
Fe	4.259999752	4.259999752	4.259999752	-0.255	-1.691	-1.421	-0.255	-1.691	-1.421
16
Lattice="5.6799998283 0.0 0.0 0.0 5.6799998283 0.0 0.0 0.0 5.6799998283" cutoff=4.00000000 nneightol=1.20000000 Properties=species:S:1:pos:R:3:spin:R:3:mag:R:3  energy=1.02322  pbc="T T T"
Fe	0	0	0	-0.999	-1.843	0.831	-0.999	-1.843	0.831
Fe	1.419999957	1.419999957	1.419999957	-0.122	-1.426	1.715	-0.122	-1.426	1.715
Fe	2.839999914	0	0	-1.229	-1.827	-0.627	-1.229	-1.827	-0.627
Fe	4.259999752	1.419999957	1.419999957	-0.8	-2.083	-0.458	-0.8	-2.083	-0.458
Fe	0	2.839999914	0	0.034	-2.255	-0.328	0.034	-2.255	-0.328
Fe	1.419999957	4.259999752	1.419999957	-1.085	-1.996	0.443	-1.085	-1.996	0.443
Fe	2.839999914	2.839999914	0	-1.333	-1.777	0.62	-1.333	-1.777	0.62
Fe	4.259999752	4.259999752	1.419999957	-1.544	-1.55	0.712	-1.544	-1.55	0.712
Fe	0	0	2.839999914	-2.055	-0.252	0.656	-2.055	-0.252	0.656
Fe	1.419999957	1.419999957	4.259999752	-0.898	-1.609	1.198	-0.898	-1.609	1.198
Fe	2.839999914	0	2.839999914	-1.528	-1.591	-0.496	-1.528	-1.591	-0.496
Fe	4.259999752	1.419999957	4.259999752	-0.389	-1.1	-1.88	-0.389	-1.1	-1.88
Fe	0	2.839999914	2.839999914	-0.143	-1.816	-1.196	-0.143	-1.816	-1.196
Fe	1.419999957	4.259999752	4.259999752	-0.221	-1.691	1.52	-0.221	-1.691	1.52
Fe	2.839999914	2.839999914	2.839999914	-0.522	-2.156	0.501	-0.522	-2.156	0.501
Fe	4.259999752	4.259999752	4.259999752	-0.312	-1.756	1.307	-0.312	-1.756	1.307
16
Lattice="5.6799998283 0.0 0.0 0.0 5.6799998283 0.0 0.0 0.0 5.6799998283" cutoff=4.00000000 nneightol=1.20000000 Properties=species:S:1:pos:R:3:spin:R:3:mag:R:3  energy=1.95224  pbc="T T T"
Fe	0	0	0	-1.942	-0.731	0.599	-1.942	-0.731	0.599
Fe	1.419999957	1.419999957	1.419999957	0.406	-2.13	0.375	0.406	-2.13	0.375
Fe	2.839999914	0	0	-0.363	-2.055	-0.846	-0.363	-2.055	-0.846
Fe	4.259999752	1.419999957	1.419999957	0.96	1.732	-0.513	0.96	1.732	-0.513
Fe	0	2.839999914	0	-1.279	-1.421	-1.14	-1.279	-1.421	-1.14
Fe	1.419999957	4.259999752	1.419999957	-0.573	-2.15	0.499	-0.573	-2.15	0.499
Fe	2.839999914	2.839999914	0	-0.616	-1.915	-1.111	-0.616	-1.915	-1.111
Fe	4.259999752	4.259999752	1.419999957	-1.36	-1.776	-0.331	-1.36	-1.776	-0.331
Fe	0	0	2.839999914	-1.775	-0.982	-0.65	-1.775	-0.982	-0.65
Fe	1.419999957	1.419999957	4.259999752	-0.123	-2.176	-0.709	-0.123	-2.176	-0.709
Fe	2.839999914	0	2.839999914	-2.071	-0.342	0.479	-2.071	-0.342	0.479
Fe	4.259999752	1.419999957	4.259999752	-0.714	-2.103	-0.177	-0.714	-2.103	-0.177
Fe	0	2.839999914	2.839999914	-1.602	0.271	-1.417	-1.602	0.271	-1.417
Fe	1.419999957	4.259999752	4.259999752	0.847	-1.421	-1.661	0.847	-1.421	-1.661
Fe	2.839999914	2.839999914	2.839999914	-0.802	-1.967	0.464	-0.802	-1.967	0.464
Fe	4.259999752	4.259999752	4.259999752	-0.862	-1.348	-1.736	-0.862	-1.348	-1.736
16
Lattice="5.6799998283 0.0 0.0 0.0 5.6799998283 0.0 0.0 0.0 5.6799998283" cutoff=4.00000000 nneightol=1.20000000 Properties=species:S:1:pos:R:3:spin:R:3:mag:R:3  energy=1.57222    pbc="T T T"
Fe	0	0	0	1.172	1.912	-0.147	1.172	1.912	-0.147
Fe	1.419999957	1.419999957	1.419999957	0.625	1.878	0.929	0.625	1.878	0.929
Fe	2.839999914	0	0	1.514	1.331	-0.846	1.514	1.331	-0.846
Fe	4.259999752	1.419999957	1.419999957	-0.911	1.466	-1.513	-0.911	1.466	-1.513
Fe	0	2.839999914	0	1.651	1.608	0.093	1.651	1.608	0.093
Fe	1.419999957	4.259999752	1.419999957	0.209	-1.303	1.711	0.209	-1.303	1.711
Fe	2.839999914	2.839999914	0	0.735	2.113	0.067	0.735	2.113	0.067
Fe	4.259999752	4.259999752	1.419999957	-0.817	1.92	-0.418	-0.817	1.92	-0.418
Fe	0	0	2.839999914	0.593	1.466	1.57	0.593	1.466	1.57
Fe	1.419999957	1.419999957	4.259999752	0.399	2.298	-0.092	0.399	2.298	-0.092
Fe	2.839999914	0	2.839999914	-1.464	1.48	-0.591	-1.464	1.48	-0.591
Fe	4.259999752	1.419999957	4.259999752	1.062	1.924	0.898	1.062	1.924	0.898
Fe	0	2.839999914	2.839999914	1.366	1.675	0.711	1.366	1.675	0.711
Fe	1.419999957	4.259999752	4.259999752	0.44	1.236	1.89	0.44	1.236	1.89
Fe	2.839999914	2.839999914	2.839999914	1.8	0.986	0.712	1.8	0.986	0.712
Fe	4.259999752	4.259999752	4.259999752	0.484	2.177	0.567	0.484	2.177	0.567
16
Lattice="5.6799998283 0.0 0.0 0.0 5.6799998283 0.0 0.0 0.0 5.6799998283" cutoff=4.00000000 nneightol=1.20000000 Properties=species:S:1:pos:R:3:spin:R:3:mag:R:3  energy=2.93358    pbc="T T T"
Fe	0	0	0	2.054	0.614	-0.259	2.054	0.614	-0.259
Fe	1.419999957	1.419999957	1.419999957	-0.18	-2.031	0.317	-0.18	-2.031	0.317
Fe	2.839999914	0	0	-1.786	0.85	0.078	-1.786	0.85	0.078
Fe	4.259999752	1.419999957	1.419999957	-1.702	1.188	0.548	-1.702	1.188	0.548
Fe	0	2.839999914	0	-0.563	1.973	0.753	-0.563	1.973	0.753
Fe	1.419999957	4.259999752	1.419999957	0.322	-1.313	1.769	0.322	-1.313	1.769
Fe	2.839999914	2.839999914	0	-0.715	-0.957	1.823	-0.715	-0.957	1.823
Fe	4.259999752	4.259999752	1.419999957	1.432	1.555	-0.323	1.432	1.555	-0.323
Fe	0	0	2.839999914	2.145	0.489	0.088	2.145	0.489	0.088
Fe	1.419999957	1.419999957	4.259999752	1.382	1.395	0.959	1.382	1.395	0.959
Fe	2.839999914	0	2.839999914	0.029	0.819	-1.882	0.029	0.819	-1.882
Fe	4.259999752	1.419999957	4.259999752	0.465	1.597	-1.579	0.465	1.597	-1.579
Fe	0	2.839999914	2.839999914	-0.375	1.187	1.821	-0.375	1.187	1.821
Fe	1.419999957	4.259999752	4.259999752	-0.082	1.357	1.754	-0.082	1.357	1.754
Fe	2.839999914	2.839999914	2.839999914	0.055	2.105	0.301	0.055	2.105	0.301
Fe	4.259999752	4.259999752	4.259999752	0.897	-0.995	1.695	0.897	-0.995	1.695
16
Lattice="5.6799998283 0.0 0.0 0.0 5.6799998283 0.0 0.0 0.0 5.6799998283" cutoff=4.00000000 nneightol=1.20000000 Properties=species:S:1:pos:R:3:spin:R:3:mag:R:3  energy=1.59141    pbc="T T T"
Fe	0	0	0	1.674	0.697	1.251	1.674	0.697	1.251
Fe	1.419999957	1.419999957	1.419999957	0.309	2.117	1.041	0.309	2.117	1.041
Fe	2.839999914	0	0	0.502	2.068	-0.315	0.502	2.068	-0.315
Fe	4.259999752	1.419999957	1.419999957	0.409	2.237	0.158	0.409	2.237	0.158
Fe	0	2.839999914	0	0.049	2.123	0.778	0.049	2.123	0.778
Fe	1.419999957	4.259999752	1.419999957	-0.495	2.33	0.08	-0.495	2.33	0.08
Fe	2.839999914	2.839999914	0	-1.293	1.821	-0.277	-1.293	1.821	-0.277
Fe	4.259999752	4.259999752	1.419999957	1.375	1.745	-0.333	1.375	1.745	-0.333
Fe	0	0	2.839999914	0.598	1.947	-0.781	0.598	1.947	-0.781
Fe	1.419999957	1.419999957	4.259999752	1.6	1.513	0.126	1.6	1.513	0.126
Fe	2.839999914	0	2.839999914	-1.871	0.813	0.692	-1.871	0.813	0.692
Fe	4.259999752	1.419999957	4.259999752	-1.84	-0.167	-0.924	-1.84	-0.167	-0.924
Fe	0	2.839999914	2.839999914	0.51	2.21	0.093	0.51	2.21	0.093
Fe	1.419999957	4.259999752	4.259999752	-0.525	2.03	0.894	-0.525	2.03	0.894
Fe	2.839999914	2.839999914	2.839999914	0.086	2.169	0.627	0.086	2.169	0.627
Fe	4.259999752	4.259999752	4.259999752	0.012	-0.359	2.072	0.012	-0.359	2.072
16
Lattice="5.6799998283 0.0 0.0 0.0 5.6799998283 0.0 0.0 0.0 5.6799998283" cutoff=4.00000000 nneightol=1.20000000 Properties=species:S:1:pos:R:3:spin:R:3:mag:R:3  energy=2.19842   pbc="T T T"
Fe	0	0	0	-0.133	0.982	2.003	-0.133	0.982	2.003
Fe	1.419999957	1.419999957	1.419999957	0.411	1.943	0.915	0.411	1.943	0.915
Fe	2.839999914	0	0	-0.323	-0.64	-1.954	-0.323	-0.64	-1.954
Fe	4.259999752	1.419999957	1.419999957	-1.636	1.599	0.004	-1.636	1.599	0.004
Fe	0	2.839999914	0	-0.969	1.708	1.257	-0.969	1.708	1.257
Fe	1.419999957	4.259999752	1.419999957	0.524	-1.15	1.652	0.524	-1.15	1.652
Fe	2.839999914	2.839999914	0	-0.59	1.507	-1.481	-0.59	1.507	-1.481
Fe	4.259999752	4.259999752	1.419999957	0.529	2.026	0.623	0.529	2.026	0.623
Fe	0	0	2.839999914	-0.746	0.226	2.179	-0.746	0.226	2.179
Fe	1.419999957	1.419999957	4.259999752	1.131	1.867	0.532	1.131	1.867	0.532
Fe	2.839999914	0	2.839999914	-0.16	1.554	-1.413	-0.16	1.554	-1.413
Fe	4.259999752	1.419999957	4.259999752	-1.536	1.074	1.344	-1.536	1.074	1.344
Fe	0	2.839999914	2.839999914	0.097	2.288	-0.462	0.097	2.288	-0.462
Fe	1.419999957	4.259999752	4.259999752	-0.319	1.769	1.233	-0.319	1.769	1.233
Fe	2.839999914	2.839999914	2.839999914	-0.922	1.972	0.528	-0.922	1.972	0.528