1
Lattice="20.0 0.0 0.0 0.0 20.0 0.0 0.0 0.0 20.0" Properties=species:S:1:pos:R:3:spin:R:3   pbc="T T T"  energy=-0.0 
Fe        0   0   0      0   0   1 
16
Lattice="5.6799998283 0.0 0.0 0.0 5.6799998283 0.0 0.0 0.0 5.6799998283" cutoff=4.00000000 nneightol=1.20000000 Properties=species:S:1:pos:R:3:spin:R:3:mag:R:3  energy=2.26979  pbc="T T T"
Fe	0	0	0	0.232608696	1.542753623	0.516666667	0.232608696	1.542753623	0.516666667
Fe	1.419999957	1.419999957	1.419999957	0.85	0.751449275	-1.17826087	0.85	0.751449275	-1.17826087
Fe	2.839999914	0	0	0.436956522	1.281884058	-0.788405797	0.436956522	1.281884058	-0.788405797
Fe	4.259999752	1.419999957	1.419999957	0.476086957	1.458695652	-0.546376812	0.476086957	1.458695652	-0.546376812
Fe	0	2.839999914	0	0.827536232	0.82826087	1.062318841	0.827536232	0.82826087	1.062318841
Fe	1.419999957	4.259999752	1.419999957	-0.728985507	1.493478261	0.392753623	-0.728985507	1.493478261	0.392753623
Fe	2.839999914	2.839999914	0	1.355072464	-0.595652174	0.469565217	1.355072464	-0.595652174	0.469565217
Fe	4.259999752	4.259999752	1.419999957	0.556521739	1.57173913	0.1	0.556521739	1.57173913	0.1
Fe	0	0	2.839999914	-0.213043478	1.594927536	-0.448550725	-0.213043478	1.594927536	-0.448550725
Fe	1.419999957	1.419999957	4.259999752	1.202173913	0.95	-0.052173913	1.202173913	0.95	-0.052173913
Fe	2.839999914	0	2.839999914	-0.913768116	1.041304348	0.79057971	-0.913768116	1.041304348	0.79057971
Fe	4.259999752	1.419999957	4.259999752	0.193478261	-1.446376812	0.371014493	0.193478261	-1.446376812	0.371014493
Fe	0	2.839999914	2.839999914	-0.434057971	1.316666667	-0.739130435	-0.434057971	1.316666667	-0.739130435
Fe	1.419999957	4.259999752	4.259999752	-1.163043478	0.978985507	0.665942029	-1.163043478	0.978985507	0.665942029
Fe	2.839999914	2.839999914	2.839999914	-0.405072464	0.664492754	1.3	-0.405072464	0.664492754	1.3
Fe	4.259999752	4.259999752	4.259999752	-0.323913043	1.162318841	-1.007246377	-0.323913043	1.162318841	-1.007246377
16
Lattice="5.6799998283 0.0 0.0 0.0 5.6799998283 0.0 0.0 0.0 5.6799998283" cutoff=4.00000000 nneightol=1.20000000 Properties=species:S:1:pos:R:3:spin:R:3:mag:R:3  pbc="T T T"
Fe	0	0	0	0.949	1.985	0.439	0.949	1.985	0.439
Fe	1.419999957	1.419999957	1.419999957	-0.919	1.48	-1.311	-0.919	1.48	-1.311
Fe	2.839999914	0	0	1.608	0.619	1.404	1.608	0.619	1.404
Fe	4.259999752	1.419999957	1.419999957	0.167	1.586	1.54	0.167	1.586	1.54
Fe	0	2.839999914	0	-1.318	1.664	0.772	-1.318	1.664	0.772
Fe	1.419999957	4.259999752	1.419999957	0.557	2.048	0.625	0.557	2.048	0.625
Fe	2.839999914	2.839999914	0	-0.141	2.228	0.301	-0.141	2.228	0.301
Fe	4.259999752	4.259999752	1.419999957	0.381	0.188	2.205	0.381	0.188	2.205
Fe	0	0	2.839999914	-0.403	2.209	0.401	-0.403	2.209	0.401
Fe	1.419999957	1.419999957	4.259999752	-0.338	2	1.012	-0.338	2	1.012
Fe	2.839999914	0	2.839999914	-0.396	1.499	1.65	-0.396	1.499	1.65
Fe	4.259999752	1.419999957	4.259999752	-1.092	1.473	1.347	-1.092	1.473	1.347
Fe	0	2.839999914	2.839999914	0.999	1.356	1.514	0.999	1.356	1.514
Fe	1.419999957	4.259999752	4.259999752	0.018	2.186	-0.574	0.018	2.186	-0.574
Fe	2.839999914	2.839999914	2.839999914	-0.016	2.28	-0.116	-0.016	2.28	-0.116
Fe	4.259999752	4.259999752	4.259999752	0.127	1.73	1.493	0.127	1.73	1.493
16
Lattice="5.6799998283 0.0 0.0 0.0 5.6799998283 0.0 0.0 0.0 5.6799998283" cutoff=4.00000000 nneightol=1.20000000 Properties=species:S:1:pos:R:3:spin:R:3:mag:R:3  pbc="T T T"
Fe	0	0	0	0.096	2.167	-0.185	0.096	2.167	-0.185
Fe	1.419999957	1.419999957	1.419999957	-0.471	2.117	0.648	-0.471	2.117	0.648
Fe	2.839999914	0	0	-0.5	1.826	1.293	-0.5	1.826	1.293
Fe	4.259999752	1.419999957	1.419999957	0.465	1.961	0.95	0.465	1.961	0.95
Fe	0	2.839999914	0	0.355	0.932	1.984	0.355	0.932	1.984
Fe	1.419999957	4.259999752	1.419999957	-0.692	2.04	0.791	-0.692	2.04	0.791
Fe	2.839999914	2.839999914	0	-0.567	2.12	0.707	-0.567	2.12	0.707
Fe	4.259999752	4.259999752	1.419999957	-1.44	1.095	1.265	-1.44	1.095	1.265
Fe	0	0	2.839999914	-1.884	0.891	0.603	-1.884	0.891	0.603
Fe	1.419999957	1.419999957	4.259999752	-0.445	2.069	0.729	-0.445	2.069	0.729
Fe	2.839999914	0	2.839999914	-0.03	2.211	0.572	-0.03	2.211	0.572
Fe	4.259999752	1.419999957	4.259999752	1.465	1.659	0.263	1.465	1.659	0.263
Fe	0	2.839999914	2.839999914	0.432	2.062	0.699	0.432	2.062	0.699
Fe	1.419999957	4.259999752	4.259999752	-1.269	1.293	1.356	-1.269	1.293	1.356
Fe	2.839999914	2.839999914	2.839999914	-0.247	1.903	1.289	-0.247	1.903	1.289
Fe	4.259999752	4.259999752	4.259999752	-0.628	1.837	1.01	-0.628	1.837	1.01
16
Lattice="5.6799998283 0.0 0.0 0.0 5.6799998283 0.0 0.0 0.0 5.6799998283" cutoff=4.00000000 nneightol=1.20000000 Properties=species:S:1:pos:R:3:spin:R:3:mag:R:3  pbc="T T T"
Fe	0	0	0	0.857	1.845	1.049	0.857	1.845	1.049
Fe	1.419999957	1.419999957	1.419999957	1.74	0.908	0.905	1.74	0.908	0.905
Fe	2.839999914	0	0	0.045	2.157	0.803	0.045	2.157	0.803
Fe	4.259999752	1.419999957	1.419999957	-0.645	1.859	1.035	-0.645	1.859	1.035
Fe	0	2.839999914	0	-0.453	2.185	0.05	-0.453	2.185	0.05
Fe	1.419999957	4.259999752	1.419999957	-0.282	2.234	-0.007	-0.282	2.234	-0.007
Fe	2.839999914	2.839999914	0	-0.227	1.313	1.859	-0.227	1.313	1.859
Fe	4.259999752	4.259999752	1.419999957	0.712	1.442	1.622	0.712	1.442	1.622
Fe	0	0	2.839999914	-0.968	2.015	0.063	-0.968	2.015	0.063
Fe	1.419999957	1.419999957	4.259999752	1.078	1.714	-0.789	1.078	1.714	-0.789
Fe	2.839999914	0	2.839999914	0.941	1.914	-0.486	0.941	1.914	-0.486
Fe	4.259999752	1.419999957	4.259999752	-0.532	1.066	1.877	-0.532	1.066	1.877
Fe	0	2.839999914	2.839999914	1.181	1.686	-0.62	1.181	1.686	-0.62
Fe	1.419999957	4.259999752	4.259999752	-0.032	1.594	1.568	-0.032	1.594	1.568
Fe	2.839999914	2.839999914	2.839999914	0.105	0.362	2.119	0.105	0.362	2.119
Fe	4.259999752	4.259999752	4.259999752	0.471	2.075	0.844	0.471	2.075	0.844
16
Lattice="5.6799998283 0.0 0.0 0.0 5.6799998283 0.0 0.0 0.0 5.6799998283" cutoff=4.00000000 nneightol=1.20000000 Properties=species:S:1:pos:R:3:spin:R:3:mag:R:3  pbc="T T T"
Fe	0	0	0	1.304	1.737	-0.352	1.304	1.737	-0.352
Fe	1.419999957	1.419999957	1.419999957	0.194	2.165	0.648	0.194	2.165	0.648
Fe	2.839999914	0	0	0.887	0.314	1.945	0.887	0.314	1.945
Fe	4.259999752	1.419999957	1.419999957	1.406	0.989	1.564	1.406	0.989	1.564
Fe	0	2.839999914	0	-1.301	1.45	1.133	-1.301	1.45	1.133
Fe	1.419999957	4.259999752	1.419999957	-0.625	1.588	-1.4	-0.625	1.588	-1.4
Fe	2.839999914	2.839999914	0	-0.288	2.128	0.608	-0.288	2.128	0.608
Fe	4.259999752	4.259999752	1.419999957	-0.259	2.126	-0.444	-0.259	2.126	-0.444
Fe	0	0	2.839999914	-0.115	2.184	0.696	-0.115	2.184	0.696
Fe	1.419999957	1.419999957	4.259999752	-0.936	1.961	-0.449	-0.936	1.961	-0.449
Fe	2.839999914	0	2.839999914	-0.479	2.17	0.344	-0.479	2.17	0.344
Fe	4.259999752	1.419999957	4.259999752	0.061	1.646	1.647	0.061	1.646	1.647
Fe	0	2.839999914	2.839999914	0.063	1.933	1.3	0.063	1.933	1.3
Fe	1.419999957	4.259999752	4.259999752	-1.921	0.552	0.954	-1.921	0.552	0.954
Fe	2.839999914	2.839999914	2.839999914	-0.061	1.046	2.057	-0.061	1.046	2.057
Fe	4.259999752	4.259999752	4.259999752	-0.929	0.701	1.913	-0.929	0.701	1.913
16
Lattice="5.6799998283 0.0 0.0 0.0 5.6799998283 0.0 0.0 0.0 5.6799998283" cutoff=4.00000000 nneightol=1.20000000 Properties=species:S:1:pos:R:3:spin:R:3:mag:R:3  pbc="T T T"
Fe	0	0	0	-0.671	2.118	0.022	-0.671	2.118	0.022
Fe	1.419999957	1.419999957	1.419999957	0.55	2.028	0.768	0.55	2.028	0.768
Fe	2.839999914	0	0	1.535	1.446	0.868	1.535	1.446	0.868
Fe	4.259999752	1.419999957	1.419999957	1.497	0.999	1.433	1.497	0.999	1.433
Fe	0	2.839999914	0	-1.172	0.492	1.72	-1.172	0.492	1.72
Fe	1.419999957	4.259999752	1.419999957	-0.273	2.084	-0.866	-0.273	2.084	-0.866
Fe	2.839999914	2.839999914	0	1.271	1.638	-0.523	1.271	1.638	-0.523
Fe	4.259999752	4.259999752	1.419999957	-0.946	2.055	0.001	-0.946	2.055	0.001
Fe	0	0	2.839999914	-0.071	2.052	1.039	-0.071	2.052	1.039
Fe	1.419999957	1.419999957	4.259999752	1.07	1.626	-0.92	1.07	1.626	-0.92
Fe	2.839999914	0	2.839999914	-0.063	2.25	0.488	-0.063	2.25	0.488
Fe	4.259999752	1.419999957	4.259999752	-0.915	1.14	1.689	-0.915	1.14	1.689
Fe	0	2.839999914	2.839999914	-1.189	1.615	1.051	-1.189	1.615	1.051
Fe	1.419999957	4.259999752	4.259999752	-1.956	1.051	-0.262	-1.956	1.051	-0.262
Fe	2.839999914	2.839999914	2.839999914	-1.558	1.526	0.35	-1.558	1.526	0.35
Fe	4.259999752	4.259999752	4.259999752	0.99	1.905	0.466	0.99	1.905	0.466
16
Lattice="5.6799998283 0.0 0.0 0.0 5.6799998283 0.0 0.0 0.0 5.6799998283" cutoff=4.00000000 nneightol=1.20000000 Properties=species:S:1:pos:R:3:spin:R:3:mag:R:3  pbc="T T T"
Fe	0	0	0	0.311	0.752	2.022	0.311	0.752	2.022
Fe	1.419999957	1.419999957	1.419999957	0.758	2.193	-0.175	0.758	2.193	-0.175
Fe	2.839999914	0	0	1.148	1.053	1.503	1.148	1.053	1.503
Fe	4.259999752	1.419999957	1.419999957	1.599	1.475	-0.585	1.599	1.475	-0.585
Fe	0	2.839999914	0	1.941	0.923	0.607	1.941	0.923	0.607
Fe	1.419999957	4.259999752	1.419999957	-0.516	1.375	1.738	-0.516	1.375	1.738
Fe	2.839999914	2.839999914	0	1	1.216	-1.457	1	1.216	-1.457
Fe	4.259999752	4.259999752	1.419999957	-0.984	1.946	-0.008	-0.984	1.946	-0.008
Fe	0	0	2.839999914	0.688	1.772	-1.12	0.688	1.772	-1.12
Fe	1.419999957	1.419999957	4.259999752	0.261	2.267	-0.11	0.261	2.267	-0.11
Fe	2.839999914	0	2.839999914	-1.649	1.075	-1.125	-1.649	1.075	-1.125
Fe	4.259999752	1.419999957	4.259999752	-1.578	1.295	0.662	-1.578	1.295	0.662
Fe	0	2.839999914	2.839999914	-0.634	2.044	-0.868	-0.634	2.044	-0.868
Fe	1.419999957	4.259999752	4.259999752	-0.792	2.038	0.516	-0.792	2.038	0.516
Fe	2.839999914	2.839999914	2.839999914	-0.786	2.122	0.414	-0.786	2.122	0.414
Fe	4.259999752	4.259999752	4.259999752	0.352	0.42	-2.047	0.352	0.42	-2.047
16
Lattice="5.6799998283 0.0 0.0 0.0 5.6799998283 0.0 0.0 0.0 5.6799998283" cutoff=4.00000000 nneightol=1.20000000 Properties=species:S:1:pos:R:3:spin:R:3:mag:R:3  pbc="T T T"
Fe	0	0	0	-1.292	-1.288	-1.35	-1.292	-1.288	-1.35
Fe	1.419999957	1.419999957	1.419999957	0.245	-1.302	-1.757	0.245	-1.302	-1.757
Fe	2.839999914	0	0	-1.561	-1.111	-1.21	-1.561	-1.111	-1.21
Fe	4.259999752	1.419999957	1.419999957	-1.436	-1.634	-0.761	-1.436	-1.634	-0.761
Fe	0	2.839999914	0	-1.312	0.134	-1.759	-1.312	0.134	-1.759
Fe	1.419999957	4.259999752	1.419999957	-1.921	-0.939	0.42	-1.921	-0.939	0.42
Fe	2.839999914	2.839999914	0	-1.852	0.095	-1.216	-1.852	0.095	-1.216
Fe	4.259999752	4.259999752	1.419999957	-1.156	-1.712	-1.013	-1.156	-1.712	-1.013
Fe	0	0	2.839999914	-1.89	-1.03	-0.838	-1.89	-1.03	-0.838
Fe	1.419999957	1.419999957	4.259999752	-1.251	-1.467	0.919	-1.251	-1.467	0.919
Fe	2.839999914	0	2.839999914	-2.198	-0.062	-0.617	-2.198	-0.062	-0.617
Fe	4.259999752	1.419999957	4.259999752	-1.972	-0.721	-0.886	-1.972	-0.721	-0.886
Fe	0	2.839999914	2.839999914	-1.695	-1.489	-0.166	-1.695	-1.489	-0.166
Fe	1.419999957	4.259999752	4.259999752	-2.184	-0.447	0.39	-2.184	-0.447	0.39
Fe	2.839999914	2.839999914	2.839999914	-0.956	-1.018	-1.726	-0.956	-1.018	-1.726
Fe	4.259999752	4.259999752	4.259999752	-2.208	-0.721	0.081	-2.208	-0.721	0.081
16
Lattice="5.6799998283 0.0 0.0 0.0 5.6799998283 0.0 0.0 0.0 5.6799998283" cutoff=4.00000000 nneightol=1.20000000 Properties=species:S:1:pos:R:3:spin:R:3:mag:R:3  pbc="T T T"
Fe	0	0	0	-1.917	1.116	-0.621	-1.917	1.116	-0.621
Fe	1.419999957	1.419999957	1.419999957	-1.462	-0.748	-1.531	-1.462	-0.748	-1.531
Fe	2.839999914	0	0	-2.223	-0.296	-0.59	-2.223	-0.296	-0.59
Fe	4.259999752	1.419999957	1.419999957	-0.573	-1.268	-1.818	-0.573	-1.268	-1.818
Fe	0	2.839999914	0	-0.755	-1.911	0.558	-0.755	-1.911	0.558
Fe	1.419999957	4.259999752	1.419999957	-1.786	-0.706	-1.192	-1.786	-0.706	-1.192
Fe	2.839999914	2.839999914	0	-1.309	1.02	1.375	-1.309	1.02	1.375
Fe	4.259999752	4.259999752	1.419999957	-0.704	-1.528	-1.588	-0.704	-1.528	-1.588
Fe	0	0	2.839999914	-0.059	-2.278	-0.327	-0.059	-2.278	-0.327
Fe	1.419999957	1.419999957	4.259999752	-1.275	1.4	0.96	-1.275	1.4	0.96
Fe	2.839999914	0	2.839999914	-1.768	-0.957	-1.076	-1.768	-0.957	-1.076
Fe	4.259999752	1.419999957	4.259999752	-0.751	-0.21	-1.967	-0.751	-0.21	-1.967
Fe	0	2.839999914	2.839999914	0.019	-1.677	-1.451	0.019	-1.677	-1.451
Fe	1.419999957	4.259999752	4.259999752	-0.904	0.757	-1.75	-0.904	0.757	-1.75
Fe	2.839999914	2.839999914	2.839999914	1.756	-0.158	-1.258	1.756	-0.158	-1.258
Fe	4.259999752	4.259999752	4.259999752	-1.924	-0.233	0.905	-1.924	-0.233	0.905
16
Lattice="5.6799998283 0.0 0.0 0.0 5.6799998283 0.0 0.0 0.0 5.6799998283" cutoff=4.00000000 nneightol=1.20000000 Properties=species:S:1:pos:R:3:spin:R:3:mag:R:3  pbc="T T T"
Fe	0	0	0	0.005	-2	-0.923	0.005	-2	-0.923
Fe	1.419999957	1.419999957	1.419999957	-0.664	-2.171	-0.125	-0.664	-2.171	-0.125
Fe	2.839999914	0	0	1.201	-1.312	1.268	1.201	-1.312	1.268
Fe	4.259999752	1.419999957	1.419999957	-1.38	-0.827	-1.415	-1.38	-0.827	-1.415
Fe	0	2.839999914	0	-0.585	-2.179	-0.106	-0.585	-2.179	-0.106
Fe	1.419999957	4.259999752	1.419999957	-0.635	-2.231	-0.134	-0.635	-2.231	-0.134
Fe	2.839999914	2.839999914	0	-0.983	-1.485	1.311	-0.983	-1.485	1.311
Fe	4.259999752	4.259999752	1.419999957	-0.112	-2.177	0.477	-0.112	-2.177	0.477
Fe	0	0	2.839999914	-0.436	-2.081	0.692	-0.436	-2.081	0.692
Fe	1.419999957	1.419999957	4.259999752	-0.483	-2.212	-0.076	-0.483	-2.212	-0.076
Fe	2.839999914	0	2.839999914	-0.476	-1.683	-1.286	-0.476	-1.683	-1.286
Fe	4.259999752	1.419999957	4.259999752	-0.311	-1.158	1.736	-0.311	-1.158	1.736
Fe	0	2.839999914	2.839999914	-1.6	-1.447	-0.884	-1.6	-1.447	-0.884
Fe	1.419999957	4.259999752	4.259999752	-0.817	-2.017	0.793	-0.817	-2.017	0.793
Fe	2.839999914	2.839999914	2.839999914	-0.482	-2.198	0.128	-0.482	-2.198	0.128
Fe	4.259999752	4.259999752	4.259999752	-0.513	-1.896	-0.994	-0.513	-1.896	-0.994
16
Lattice="5.6799998283 0.0 0.0 0.0 5.6799998283 0.0 0.0 0.0 5.6799998283" cutoff=4.00000000 nneightol=1.20000000 Properties=species:S:1:pos:R:3:spin:R:3:mag:R:3  pbc="T T T"
Fe	0	0	0	-0.951	-1.878	0.421	-0.951	-1.878	0.421
Fe	1.419999957	1.419999957	1.419999957	-0.46	-2.221	0.359	-0.46	-2.221	0.359
Fe	2.839999914	0	0	0.888	-1.848	-0.929	0.888	-1.848	-0.929
Fe	4.259999752	1.419999957	1.419999957	-1.019	0.224	-1.97	-1.019	0.224	-1.97
Fe	0	2.839999914	0	-1.991	-0.754	0.324	-1.991	-0.754	0.324
Fe	1.419999957	4.259999752	1.419999957	1.469	-1.04	1.391	1.469	-1.04	1.391
Fe	2.839999914	2.839999914	0	-0.537	-2.111	0.204	-0.537	-2.111	0.204
Fe	4.259999752	4.259999752	1.419999957	1.108	-1.57	-1.05	1.108	-1.57	-1.05
Fe	0	0	2.839999914	-0.919	-0.92	1.719	-0.919	-0.92	1.719
Fe	1.419999957	1.419999957	4.259999752	0.016	-2.172	0.783	0.016	-2.172	0.783
Fe	2.839999914	0	2.839999914	-0.728	-1.746	-1.069	-0.728	-1.746	-1.069
Fe	4.259999752	1.419999957	4.259999752	1.871	-0.041	0.973	1.871	-0.041	0.973
Fe	0	2.839999914	2.839999914	-0.94	-1.626	1.129	-0.94	-1.626	1.129
Fe	1.419999957	4.259999752	4.259999752	2.106	-0.739	0.64	2.106	-0.739	0.64
Fe	2.839999914	2.839999914	2.839999914	-1.01	-1.339	1.361	-1.01	-1.339	1.361
Fe	4.259999752	4.259999752	4.259999752	-1.424	-1.156	1.213	-1.424	-1.156	1.213
16
Lattice="5.6799998283 0.0 0.0 0.0 5.6799998283 0.0 0.0 0.0 5.6799998283" cutoff=4.00000000 nneightol=1.20000000 Properties=species:S:1:pos:R:3:spin:R:3:mag:R:3  pbc="T T T"
Fe	0	0	0	1.759	0.634	-1.031	1.759	0.634	-1.031
Fe	1.419999957	1.419999957	1.419999957	0.594	-1.98	-0.872	0.594	-1.98	-0.872
Fe	2.839999914	0	0	-1.391	0.543	-1.641	-1.391	0.543	-1.641
Fe	4.259999752	1.419999957	1.419999957	-1.725	-1.346	-0.066	-1.725	-1.346	-0.066
Fe	0	2.839999914	0	-1.775	-0.486	-1.119	-1.775	-0.486	-1.119
Fe	1.419999957	4.259999752	1.419999957	-1.619	1.242	-0.693	-1.619	1.242	-0.693
Fe	2.839999914	2.839999914	0	-2.028	0.788	-0.548	-2.028	0.788	-0.548
Fe	4.259999752	4.259999752	1.419999957	-2.085	-0.816	0.009	-2.085	-0.816	0.009
Fe	0	0	2.839999914	-1.585	1.195	0.195	-1.585	1.195	0.195
Fe	1.419999957	1.419999957	4.259999752	0.454	1.159	-1.838	0.454	1.159	-1.838
Fe	2.839999914	0	2.839999914	-0.449	-2.032	-0.551	-0.449	-2.032	-0.551
Fe	4.259999752	1.419999957	4.259999752	0.996	1.031	-1.624	0.996	1.031	-1.624
Fe	0	2.839999914	2.839999914	1.841	-0.164	-1.071	1.841	-0.164	-1.071
Fe	1.419999957	4.259999752	4.259999752	-0.918	-0.806	1.537	-0.918	-0.806	1.537
Fe	2.839999914	2.839999914	2.839999914	-1.365	0.225	-1.742	-1.365	0.225	-1.742
Fe	4.259999752	4.259999752	4.259999752	-0.456	1.729	1.174	-0.456	1.729	1.174
16
Lattice="5.6799998283 0.0 0.0 0.0 5.6799998283 0.0 0.0 0.0 5.6799998283" cutoff=4.00000000 nneightol=1.20000000 Properties=species:S:1:pos:R:3:spin:R:3:mag:R:3  pbc="T T T"
Fe	0	0	0	-1.282	1.684	0.04	-1.282	1.684	0.04
Fe	1.419999957	1.419999957	1.419999957	0.175	0.141	2.079	0.175	0.141	2.079
Fe	2.839999914	0	0	0.552	-1.746	-1.098	0.552	-1.746	-1.098
Fe	4.259999752	1.419999957	1.419999957	0.675	2.03	0.437	0.675	2.03	0.437
Fe	0	2.839999914	0	-1.982	-0.402	-0.979	-1.982	-0.402	-0.979
Fe	1.419999957	4.259999752	1.419999957	-1.8	0.688	-1.141	-1.8	0.688	-1.141
Fe	2.839999914	2.839999914	0	-1.823	-0.155	-1.211	-1.823	-0.155	-1.211
Fe	4.259999752	4.259999752	1.419999957	-1.961	-0.181	-1.174	-1.961	-0.181	-1.174
Fe	0	0	2.839999914	-1.195	1.898	0.399	-1.195	1.898	0.399
Fe	1.419999957	1.419999957	4.259999752	0.355	1.141	-1.864	0.355	1.141	-1.864
Fe	2.839999914	0	2.839999914	-0.38	1.55	-1.516	-0.38	1.55	-1.516
Fe	4.259999752	1.419999957	4.259999752	0.109	1.227	-1.884	0.109	1.227	-1.884
Fe	0	2.839999914	2.839999914	-0.814	1.916	-1.002	-0.814	1.916	-1.002
Fe	1.419999957	4.259999752	4.259999752	-0.016	-0.22	-2.3	-0.016	-0.22	-2.3
Fe	2.839999914	2.839999914	2.839999914	-0.573	2.142	0.005	-0.573	2.142	0.005
Fe	4.259999752	4.259999752	4.259999752	-2.18	0.753	-0.108	-2.18	0.753	-0.108
16
Lattice="5.6799998283 0.0 0.0 0.0 5.6799998283 0.0 0.0 0.0 5.6799998283" cutoff=4.00000000 nneightol=1.20000000 Properties=species:S:1:pos:R:3:spin:R:3:mag:R:3  pbc="T T T"
Fe	0	0	0	-0.693	2.003	0.001	-0.693	2.003	0.001
Fe	1.419999957	1.419999957	1.419999957	-0.738	2.043	-0.251	-0.738	2.043	-0.251
Fe	2.839999914	0	0	-1.024	-1.856	-0.923	-1.024	-1.856	-0.923
Fe	4.259999752	1.419999957	1.419999957	0.186	1.707	-1.408	0.186	1.707	-1.408
Fe	0	2.839999914	0	1.402	0.987	-1.316	1.402	0.987	-1.316
Fe	1.419999957	4.259999752	1.419999957	-0.769	-0.904	-1.734	-0.769	-0.904	-1.734
Fe	2.839999914	2.839999914	0	-1.265	-1.161	-1.481	-1.265	-1.161	-1.481
Fe	4.259999752	4.259999752	1.419999957	-1.903	-0.073	-1.074	-1.903	-0.073	-1.074
Fe	0	0	2.839999914	-1.659	-1.285	0.554	-1.659	-1.285	0.554
Fe	1.419999957	1.419999957	4.259999752	-0.45	1.363	-1.599	-0.45	1.363	-1.599
Fe	2.839999914	0	2.839999914	-0.47	1.654	-1.463	-0.47	1.654	-1.463
Fe	4.259999752	1.419999957	4.259999752	-1.738	-0.576	-1.129	-1.738	-0.576	-1.129
Fe	0	2.839999914	2.839999914	-1.144	1.832	0.711	-1.144	1.832	0.711
Fe	1.419999957	4.259999752	4.259999752	-1.889	-1.123	-0.225	-1.889	-1.123	-0.225
Fe	2.839999914	2.839999914	2.839999914	-1.755	1.438	0.295	-1.755	1.438	0.295
Fe	4.259999752	4.259999752	4.259999752	-2.195	0.031	-0.407	-2.195	0.031	-0.407
16
Lattice="5.6799998283 0.0 0.0 0.0 5.6799998283 0.0 0.0 0.0 5.6799998283" cutoff=4.00000000 nneightol=1.20000000 Properties=species:S:1:pos:R:3:spin:R:3:mag:R:3  pbc="T T T"
Fe	0	0	0	-1.262	-1.552	-0.934	-1.262	-1.552	-0.934
Fe	1.419999957	1.419999957	1.419999957	-1.293	0.413	-1.848	-1.293	0.413	-1.848
Fe	2.839999914	0	0	-0.32	1.238	-1.692	-0.32	1.238	-1.692
Fe	4.259999752	1.419999957	1.419999957	-1.759	0.01	-1.466	-1.759	0.01	-1.466
Fe	0	2.839999914	0	-0.235	-0.319	-2.236	-0.235	-0.319	-2.236
Fe	1.419999957	4.259999752	1.419999957	-0.535	-0.856	-1.951	-0.535	-0.856	-1.951
Fe	2.839999914	2.839999914	0	-0.611	-1.63	-1.309	-0.611	-1.63	-1.309
Fe	4.259999752	4.259999752	1.419999957	-0.776	-1.992	-0.341	-0.776	-1.992	-0.341
Fe	0	0	2.839999914	-0.043	-0.473	-2.182	-0.043	-0.473	-2.182
Fe	1.419999957	1.419999957	4.259999752	-0.8	-0.509	-2.096	-0.8	-0.509	-2.096
Fe	2.839999914	0	2.839999914	-2.179	0.096	-0.552	-2.179	0.096	-0.552
Fe	4.259999752	1.419999957	4.259999752	-1.379	0.217	-1.831	-1.379	0.217	-1.831
Fe	0	2.839999914	2.839999914	-1.25	0.354	-1.883	-1.25	0.354	-1.883
Fe	1.419999957	4.259999752	4.259999752	-1.132	1.77	-0.586	-1.132	1.77	-0.586
Fe	2.839999914	2.839999914	2.839999914	-1.052	0.924	-1.798	-1.052	0.924	-1.798
Fe	4.259999752	4.259999752	4.259999752	-0.483	1.178	-1.737	-0.483	1.178	-1.737
16
Lattice="5.6799998283 0.0 0.0 0.0 5.6799998283 0.0 0.0 0.0 5.6799998283" cutoff=4.00000000 nneightol=1.20000000 Properties=species:S:1:pos:R:3:spin:R:3:mag:R:3  pbc="T T T"
Fe	0	0	0	-2.011	-1.087	-0.223	-2.011	-1.087	-0.223
Fe	1.419999957	1.419999957	1.419999957	-1.039	-1.651	-1.129	-1.039	-1.651	-1.129
Fe	2.839999914	0	0	-1.346	-1.404	-1.238	-1.346	-1.404	-1.238
Fe	4.259999752	1.419999957	1.419999957	1.2	-1.75	-0.616	1.2	-1.75	-0.616
Fe	0	2.839999914	0	-2.147	-0.752	-0.178	-2.147	-0.752	-0.178
Fe	1.419999957	4.259999752	1.419999957	-1.48	-1.696	-0.458	-1.48	-1.696	-0.458
Fe	2.839999914	2.839999914	0	-1.497	-1.331	-1.182	-1.497	-1.331	-1.182
Fe	4.259999752	4.259999752	1.419999957	-0.842	-1.213	-1.722	-0.842	-1.213	-1.722
Fe	0	0	2.839999914	-1.584	1.006	-1.044	-1.584	1.006	-1.044
Fe	1.419999957	1.419999957	4.259999752	-1.411	1.212	-1.238	-1.411	1.212	-1.238
Fe	2.839999914	0	2.839999914	-0.629	-1.671	1.097	-0.629	-1.671	1.097
Fe	4.259999752	1.419999957	4.259999752	-1.941	-0.292	0.813	-1.941	-0.292	0.813
Fe	0	2.839999914	2.839999914	0.202	0.831	-2.065	0.202	0.831	-2.065
Fe	1.419999957	4.259999752	4.259999752	-1.127	0.67	-1.904	-1.127	0.67	-1.904
Fe	2.839999914	2.839999914	2.839999914	-0.77	-0.145	-2.089	-0.77	-0.145	-2.089
Fe	4.259999752	4.259999752	4.259999752	-1.551	0.877	-1.393	-1.551	0.877	-1.393
16
Lattice="5.6799998283 0.0 0.0 0.0 5.6799998283 0.0 0.0 0.0 5.6799998283" cutoff=4.00000000 nneightol=1.20000000 Properties=species:S:1:pos:R:3:spin:R:3:mag:R:3  pbc="T T T"
Fe	0	0	0	-1.983	0.383	-0.994	-1.983	0.383	-0.994
Fe	1.419999957	1.419999957	1.419999957	-1.614	-0.973	-1.074	-1.614	-0.973	-1.074
Fe	2.839999914	0	0	-0.308	-2.089	0.171	-0.308	-2.089	0.171
Fe	4.259999752	1.419999957	1.419999957	-0.651	-1.035	-1.795	-0.651	-1.035	-1.795
Fe	0	2.839999914	0	-1.746	-0.105	1.445	-1.746	-0.105	1.445
Fe	1.419999957	4.259999752	1.419999957	-1.667	1.316	0.544	-1.667	1.316	0.544
Fe	2.839999914	2.839999914	0	-1.927	-0.413	1.005	-1.927	-0.413	1.005
Fe	4.259999752	4.259999752	1.419999957	-0.996	-0.609	1.898	-0.996	-0.609	1.898
Fe	0	0	2.839999914	-1.136	-1.023	1.57	-1.136	-1.023	1.57
Fe	1.419999957	1.419999957	4.259999752	-1.252	0.273	1.773	-1.252	0.273	1.773
Fe	2.839999914	0	2.839999914	-0.478	0.699	1.888	-0.478	0.699	1.888
Fe	4.259999752	1.419999957	4.259999752	-0.798	-1.404	1.651	-0.798	-1.404	1.651
Fe	0	2.839999914	2.839999914	-0.864	-1.469	1.422	-0.864	-1.469	1.422
Fe	1.419999957	4.259999752	4.259999752	-0.56	-1.525	-1.415	-0.56	-1.525	-1.415
Fe	2.839999914	2.839999914	2.839999914	0.362	-2.148	0.032	0.362	-2.148	0.032
Fe	4.259999752	4.259999752	4.259999752	-1.788	-0.97	1.094	-1.788	-0.97	1.094
16
Lattice="5.6799998283 0.0 0.0 0.0 5.6799998283 0.0 0.0 0.0 5.6799998283" cutoff=4.00000000 nneightol=1.20000000 Properties=species:S:1:pos:R:3:spin:R:3:mag:R:3  pbc="T T T"
Fe	0	0	0	-0.683	-1.7	-1.291	-0.683	-1.7	-1.291
Fe	1.419999957	1.419999957	1.419999957	-1.78	-0.876	-1.019	-1.78	-0.876	-1.019
Fe	2.839999914	0	0	-2.026	-1.071	-0.115	-2.026	-1.071	-0.115
Fe	4.259999752	1.419999957	1.419999957	-1.469	-1.483	-0.736	-1.469	-1.483	-0.736
Fe	0	2.839999914	0	-0.781	1.805	-0.458	-0.781	1.805	-0.458
Fe	1.419999957	4.259999752	1.419999957	-0.627	-1.929	-1.026	-0.627	-1.929	-1.026
Fe	2.839999914	2.839999914	0	-0.039	-1.984	0.66	-0.039	-1.984	0.66
Fe	4.259999752	4.259999752	1.419999957	-0.909	-1.887	-0.906	-0.909	-1.887	-0.906
Fe	0	0	2.839999914	-1.673	-1.372	-0.938	-1.673	-1.372	-0.938
Fe	1.419999957	1.419999957	4.259999752	-2.048	-0.728	0.108	-2.048	-0.728	0.108
Fe	2.839999914	0	2.839999914	-0.902	-1.342	-1.741	-0.902	-1.342	-1.741
Fe	4.259999752	1.419999957	4.259999752	-0.148	0.481	-2.069	-0.148	0.481	-2.069
Fe	0	2.839999914	2.839999914	-0.305	-2.034	-0.792	-0.305	-2.034	-0.792
Fe	1.419999957	4.259999752	4.259999752	-2.155	-0.117	-0.436	-2.155	-0.117	-0.436
Fe	2.839999914	2.839999914	2.839999914	-1.887	-0.056	-1.237	-1.887	-0.056	-1.237
Fe	4.259999752	4.259999752	4.259999752	-1.453	-1.277	-1.012	-1.453	-1.277	-1.012
16
Lattice="5.6799998283 0.0 0.0 0.0 5.6799998283 0.0 0.0 0.0 5.6799998283" cutoff=4.00000000 nneightol=1.20000000 Properties=species:S:1:pos:R:3:spin:R:3:mag:R:3  pbc="T T T"
Fe	0	0	0	-1.596	-0.657	-1.345	-1.596	-0.657	-1.345
Fe	1.419999957	1.419999957	1.419999957	-1.069	-1.473	-1.403	-1.069	-1.473	-1.403
Fe	2.839999914	0	0	-2.121	0.104	-0.624	-2.121	0.104	-0.624
Fe	4.259999752	1.419999957	1.419999957	-0.65	0.687	-2.081	-0.65	0.687	-2.081
Fe	0	2.839999914	0	-1.76	-1.19	0.668	-1.76	-1.19	0.668
Fe	1.419999957	4.259999752	1.419999957	-1.512	-1.041	-1.448	-1.512	-1.041	-1.448
Fe	2.839999914	2.839999914	0	-1.964	0.884	0.682	-1.964	0.884	0.682
Fe	4.259999752	4.259999752	1.419999957	-1.644	-1.477	-0.714	-1.644	-1.477	-0.714
Fe	0	0	2.839999914	0.829	-1.424	-1.5	0.829	-1.424	-1.5
Fe	1.419999957	1.419999957	4.259999752	-0.922	1.857	0.663	-0.922	1.857	0.663
Fe	2.839999914	0	2.839999914	-1.099	0.758	-1.774	-1.099	0.758	-1.774
Fe	4.259999752	1.419999957	4.259999752	-0.847	-1.055	-1.631	-0.847	-1.055	-1.631
Fe	0	2.839999914	2.839999914	-1.355	-0.56	-1.66	-1.355	-0.56	-1.66
Fe	1.419999957	4.259999752	4.259999752	-1.858	-0.526	-1.116	-1.858	-0.526	-1.116
Fe	2.839999914	2.839999914	2.839999914	-0.984	-1.373	-1.4	-0.984	-1.373	-1.4
Fe	4.259999752	4.259999752	4.259999752	-0.683	-1.264	1.693	-0.683	-1.264	1.693
16
Lattice="5.6799998283 0.0 0.0 0.0 5.6799998283 0.0 0.0 0.0 5.6799998283" cutoff=4.00000000 nneightol=1.20000000 Properties=species:S:1:pos:R:3:spin:R:3:mag:R:3  pbc="T T T"
Fe	0	0	0	-0.299	-2.216	-0.649	-0.299	-2.216	-0.649
Fe	1.419999957	1.419999957	1.419999957	0.142	-2.089	-0.735	0.142	-2.089	-0.735
Fe	2.839999914	0	0	0.806	-2.169	0.039	0.806	-2.169	0.039
Fe	4.259999752	1.419999957	1.419999957	-0.281	-1.228	-1.931	-0.281	-1.228	-1.931
Fe	0	2.839999914	0	0.157	-2.181	0.52	0.157	-2.181	0.52
Fe	1.419999957	4.259999752	1.419999957	-1.823	-0.177	1.146	-1.823	-0.177	1.146
Fe	2.839999914	2.839999914	0	-0.391	-1.783	1.219	-0.391	-1.783	1.219
Fe	4.259999752	4.259999752	1.419999957	-0.437	-2.041	-0.664	-0.437	-2.041	-0.664
Fe	0	0	2.839999914	-0.148	-2.182	-0.739	-0.148	-2.182	-0.739
Fe	1.419999957	1.419999957	4.259999752	-0.302	-1.608	-1.561	-0.302	-1.608	-1.561
Fe	2.839999914	0	2.839999914	-0.268	-2.243	-0.096	-0.268	-2.243	-0.096
Fe	4.259999752	1.419999957	4.259999752	0.246	-2.286	-0.412	0.246	-2.286	-0.412
Fe	0	2.839999914	2.839999914	-1.874	-1.2	0.008	-1.874	-1.2	0.008
Fe	1.419999957	4.259999752	4.259999752	-0.439	-2.009	0.949	-0.439	-2.009	0.949
Fe	2.839999914	2.839999914	2.839999914	-0.554	-0.524	-1.99	-0.554	-0.524	-1.99
Fe	4.259999752	4.259999752	4.259999752	-0.649	-1.962	0.974	-0.649	-1.962	0.974
16
Lattice="5.6799998283 0.0 0.0 0.0 5.6799998283 0.0 0.0 0.0 5.6799998283" cutoff=4.00000000 nneightol=1.20000000 Properties=species:S:1:pos:R:3:spin:R:3:mag:R:3  pbc="T T T"
Fe	0	0	0	-0.829	-2.074	-0.202	-0.829	-2.074	-0.202
Fe	1.419999957	1.419999957	1.419999957	-1.92	-1.081	0.386	-1.92	-1.081	0.386
Fe	2.839999914	0	0	-0.978	-1.733	-1.134	-0.978	-1.733	-1.134
Fe	4.259999752	1.419999957	1.419999957	-1.416	-1.793	0.103	-1.416	-1.793	0.103
Fe	0	2.839999914	0	0.099	-1.917	-0.964	0.099	-1.917	-0.964
Fe	1.419999957	4.259999752	1.419999957	0.307	-1.633	-1.72	0.307	-1.633	-1.72
Fe	2.839999914	2.839999914	0	-1.901	-0.924	-0.7	-1.901	-0.924	-0.7
Fe	4.259999752	4.259999752	1.419999957	-1.531	-1.715	-0.683	-1.531	-1.715	-0.683
Fe	0	0	2.839999914	-1.073	-1.424	-1.294	-1.073	-1.424	-1.294
Fe	1.419999957	1.419999957	4.259999752	-1.211	1.478	-0.959	-1.211	1.478	-0.959
Fe	2.839999914	0	2.839999914	-1.843	-1.281	-0.455	-1.843	-1.281	-0.455
Fe	4.259999752	1.419999957	4.259999752	-0.711	1.464	1.49	-0.711	1.464	1.49
Fe	0	2.839999914	2.839999914	-1.965	0.845	-0.225	-1.965	0.845	-0.225
Fe	1.419999957	4.259999752	4.259999752	-0.07	-1.303	-1.847	-0.07	-1.303	-1.847
Fe	2.839999914	2.839999914	2.839999914	-1.908	-1.136	-0.373	-1.908	-1.136	-0.373
Fe	4.259999752	4.259999752	4.259999752	-1.57	-1.574	0.27	-1.57	-1.574	0.27
16
Lattice="5.6799998283 0.0 0.0 0.0 5.6799998283 0.0 0.0 0.0 5.6799998283" cutoff=4.00000000 nneightol=1.20000000 Properties=species:S:1:pos:R:3:spin:R:3:mag:R:3  pbc="T T T"
Fe	0	0	0	-0.705	2.034	-0.299	-0.705	2.034	-0.299
Fe	1.419999957	1.419999957	1.419999957	-0.16	-0.898	1.903	-0.16	-0.898	1.903
Fe	2.839999914	0	0	0.134	0.11	-2.164	0.134	0.11	-2.164
Fe	4.259999752	1.419999957	1.419999957	-0.563	1.612	1.403	-0.563	1.612	1.403
Fe	0	2.839999914	0	-1.99	-0.55	0.741	-1.99	-0.55	0.741
Fe	1.419999957	4.259999752	1.419999957	-1.678	-0.039	-1.536	-1.678	-0.039	-1.536
Fe	2.839999914	2.839999914	0	-1.902	-0.716	-0.751	-1.902	-0.716	-0.751
Fe	4.259999752	4.259999752	1.419999957	-1.302	0.966	-1.61	-1.302	0.966	-1.61
Fe	0	0	2.839999914	-1.761	1.252	-0.541	-1.761	1.252	-0.541
Fe	1.419999957	1.419999957	4.259999752	-1.231	0.286	-1.732	-1.231	0.286	-1.732
Fe	2.839999914	0	2.839999914	-1.265	1.39	-1.17	-1.265	1.39	-1.17
Fe	4.259999752	1.419999957	4.259999752	0.565	-1.498	-1.325	0.565	-1.498	-1.325
Fe	0	2.839999914	2.839999914	-0.18	1.674	-1.319	-0.18	1.674	-1.319
Fe	1.419999957	4.259999752	4.259999752	-1.212	-0.989	-1.766	-1.212	-0.989	-1.766
Fe	2.839999914	2.839999914	2.839999914	0.462	2.067	0.025	0.462	2.067	0.025
Fe	4.259999752	4.259999752	4.259999752	-1.572	1.665	0.068	-1.572	1.665	0.068
16
Lattice="5.6799998283 0.0 0.0 0.0 5.6799998283 0.0 0.0 0.0 5.6799998283" cutoff=4.00000000 nneightol=1.20000000 Properties=species:S:1:pos:R:3:spin:R:3:mag:R:3  pbc="T T T"
Fe	0	0	0	-1.602	1.01	-1.023	-1.602	1.01	-1.023
Fe	1.419999957	1.419999957	1.419999957	-0.598	1.98	-0.741	-0.598	1.98	-0.741
Fe	2.839999914	0	0	0.997	-0.791	-1.841	0.997	-0.791	-1.841
Fe	4.259999752	1.419999957	1.419999957	-0.944	-0.711	-1.848	-0.944	-0.711	-1.848
Fe	0	2.839999914	0	-0.101	-0.842	-1.94	-0.101	-0.842	-1.94
Fe	1.419999957	4.259999752	1.419999957	-0.373	-2.053	0.431	-0.373	-2.053	0.431
Fe	2.839999914	2.839999914	0	-2.12	-0.36	-0.501	-2.12	-0.36	-0.501